Title: * /home/acole/documents/development/projects/businesscard/business card.cir
Date: Sat Jun 10 22:40:13  2017
Plotname: Transient Analysis
Flags: real
No. Variables: 21
No. Points: 1465    
Variables:
	0	time	time
	1	v(vdd)	voltage
	2	v(c)	voltage
	3	v(j)	voltage
	4	v(k)	voltage
	5	v(q)	voltage
	6	v(net-_q1-pad3_)	voltage
	7	v(net-_q2-pad3_)	voltage
	8	v(net-_q3-pad3_)	voltage
	9	v(net-_q5-pad3_)	voltage
	10	v(qn)	voltage
	11	v(net-_q6-pad3_)	voltage
	12	v(net-_q4-pad3_)	voltage
	13	v(net-_q9-pad2_)	voltage
	14	v(net-_q7-pad2_)	voltage
	15	v(net-_q8-pad2_)	voltage
	16	v(net-_q10-pad2_)	voltage
	17	i(vs4)	current
	18	i(vs3)	current
	19	i(vs2)	current
	20	i(vs1)	current
Values:
0		0.000000000000000e+00
	5.000000000000000e+00
	0.000000000000000e+00
	0.000000000000000e+00
	0.000000000000000e+00
	9.688850473402464e-01
	9.165318143971469e-01
	1.670381310959397e-03
	2.315748074854607e-05
	4.655115559322123e-01
	9.761209228190122e-01
	4.757565918872624e-01
	3.475449269721030e-03
	6.776840141775415e-01
	2.547113834440833e-05
	4.750413371568822e-01
	6.767445362954735e-01
	2.410689334875779e-09
	7.454026973749042e-11
	4.799440844507670e-09
	-8.054999279920816e-03
1		1.000000000000000e-06
	5.000000000000000e+00
	5.000000000000001e-02
	0.000000000000000e+00
	0.000000000000000e+00
	9.689018324581462e-01
	9.350604164340620e-01
	2.942609843687452e-02
	2.393767533918468e-05
	4.657251349775577e-01
	9.761269382505144e-01
	4.757633234102292e-01
	2.619292362098937e-02
	6.776848004896014e-01
	2.629239323831238e-05
	4.750479476120990e-01
	6.767466084862789e-01
	1.074061757494889e-07
	1.046981414012004e-07
	-4.854274505104728e-07
	-8.054976206190556e-03
2		2.000000000000000e-06
	5.000000000000000e+00
	1.000000000000000e-01
	0.000000000000000e+00
	0.000000000000000e+00
	9.689011588469598e-01
	9.536661559423720e-01
	5.758987981941483e-02
	2.380815426990923e-05
	4.657305028001068e-01
	9.761271496479962e-01
	4.757635801035737e-01
	4.952782056979516e-02
	6.776848110849193e-01
	2.612117796447480e-05
	4.750482521382599e-01
	6.767466468536532e-01
	1.091801040055235e-07
	1.053123738052576e-07
	-4.917387043251731e-07
	-8.054976563127259e-03
3		4.000000000000001e-06
	5.000000000000000e+00
	2.000000000000000e-01
	0.000000000000000e+00
	0.000000000000000e+00
	9.689021210409688e-01
	9.912841918396291e-01
	1.153580900226320e-01
	2.411366414657608e-05
	4.657416642054841e-01
	9.761269163853941e-01
	4.757634367984248e-01
	9.859845569470227e-02
	6.776847938117374e-01
	2.642832872327408e-05
	4.750481163303336e-01
	6.767467669645729e-01
	1.161725392828505e-07
	1.063618041859715e-07
	-5.095811430044783e-07
	-8.054975687395771e-03
4		8.000000000000001e-06
	5.000000000000000e+00
	4.000000000000001e-01
	0.000000000000000e+00
	0.000000000000000e+00
	9.689034659816981e-01
	1.066416878608695e+00
	2.395113693301448e-01
	2.435723706182328e-05
	4.657582734403973e-01
	9.761265636676226e-01
	4.757632102333122e-01
	2.186906211098734e-01
	6.776847354017285e-01
	2.667081700827084e-05
	4.750478859530096e-01
	6.767469516245359e-01
	1.482097715757924e-07
	1.125314244898573e-07
	-5.596842638372346e-07
	-8.054974630387068e-03
5		1.491550861490549e-05
	5.000000000000000e+00
	7.457754307452747e-01
	0.000000000000000e+00
	0.000000000000000e+00
	9.689310729159016e-01
	1.173752579659631e+00
	5.037964607022278e-01
	2.459220707092366e-05
	4.660781857774341e-01
	9.761205087914755e-01
	4.757596032292313e-01
	4.933472780858210e-01
	6.776840146052262e-01
	2.692777074372312e-05
	4.750443265404694e-01
	6.767504865300958e-01
	1.746534815757412e-07
	1.388158056548045e-07
	-8.772133275047889e-07
	-8.054953047350155e-03
6		2.122506494286304e-05
	5.000000000000000e+00
	1.061253247143152e+00
	0.000000000000000e+00
	0.000000000000000e+00
	9.726498980925694e-01
	1.241626865753584e+00
	8.000431068363834e-01
	5.603295869651893e-05
	5.675910089256477e-01
	9.756785188857302e-01
	4.756340604782673e-01
	5.601005037315783e-01
	6.776332835132340e-01
	6.155598095331383e-05
	4.749200294003480e-01
	6.772239851614187e-01
	-8.621352278086686e-08
	1.473194995157911e-07
	-4.105375022822599e-05
	-8.051673743486587e-03
7		2.598012915991705e-05
	5.000000000000000e+00
	1.299006457995852e+00
	0.000000000000000e+00
	0.000000000000000e+00
	9.730497694575367e-01
	1.289280105556283e+00
	1.039490130868467e+00
	4.852559419947080e-07
	7.989328046710291e-01
	9.757290292699441e-01
	4.757436075776997e-01
	7.881843549381984e-01
	6.776282984929843e-01
	2.542122620103650e-07
	4.750280700893338e-01
	6.772969749394910e-01
	4.414097483248424e-07
	1.430340833376873e-07
	-4.811155022704794e-05
	-8.051227975281572e-03
8		3.101334637927270e-05
	5.000000000000000e+00
	1.550667318963635e+00
	0.000000000000000e+00
	0.000000000000000e+00
	9.732023763823456e-01
	1.375686590724588e+00
	1.292838058120745e+00
	4.759371105206851e-05
	1.051210628327363e+00
	9.756296860571343e-01
	4.756628938944097e-01
	1.041762168809875e+00
	6.776264353239843e-01
	5.246775724695898e-05
	4.749492165502303e-01
	6.772976650760438e-01
	-8.716882037255053e-08
	1.359625665309368e-07
	-4.748657025366310e-05
	-8.051170330363178e-03
9		3.574180989038308e-05
	5.000000000000000e+00
	1.787090494519154e+00
	0.000000000000000e+00
	0.000000000000000e+00
	9.730445273573113e-01
	1.543303321914677e+00
	1.530315585516204e+00
	1.825795838229255e-06
	1.287242137056012e+00
	9.757470061160207e-01
	4.757790738539284e-01
	1.276302618873946e+00
	6.776299065322028e-01
	1.551953207445510e-06
	4.750625937429112e-01
	6.772967230006730e-01
	4.215044623626770e-07
	1.328942400335843e-07
	-4.824205916720281e-05
	-8.051215506890808e-03
10		4.255867612040756e-05
	5.000000000000000e+00
	2.127933806020378e+00
	0.000000000000000e+00
	0.000000000000000e+00
	9.732012760240175e-01
	1.880708663013689e+00
	1.872618018852535e+00
	4.655795496016403e-05
	1.628503075343881e+00
	9.756320401710337e-01
	4.756868817398202e-01
	1.619073919237965e+00
	6.776273819619649e-01
	5.147909315328695e-05
	4.749735082031247e-01
	6.772971305804746e-01
	-9.667959950024096e-08
	1.269191676295350e-07
	-4.752406970331968e-05
	-8.051168840610856e-03
11		4.844595484907429e-05
	5.000000000000000e+00
	2.422297742453714e+00
	0.000000000000000e+00
	0.000000000000000e+00
	9.730378685698520e-01
	2.180420443518521e+00
	2.168394413967097e+00
	2.614493923040854e-06
	1.922467606771972e+00
	9.757510009513553e-01
	4.758060418974257e-01
	1.911559035300064e+00
	6.776298714785947e-01
	2.289215140695885e-06
	4.750888102626025e-01
	6.772962064150094e-01
	4.052352483764716e-07
	1.244134261829189e-07
	-4.818580109960946e-05
	-8.051218383523295e-03
12		5.563690392261261e-05
	5.000000000000000e+00
	2.781845196130630e+00
	0.000000000000000e+00
	0.000000000000000e+00
	9.732023378053695e-01
	2.543261694722012e+00
	2.529488475952701e+00
	4.589909494769909e-05
	2.282423930407658e+00
	9.756257513426023e-01
	4.757057655545405e-01
	2.272997562162442e+00
	6.776271224361553e-01
	5.087942889148232e-05
	4.749926835263799e-01
	6.772969112121148e-01
	-1.038694343643383e-07
	1.195693309399788e-07
	-4.747560949536211e-05
	-8.051173855353699e-03
13		7.001880206968925e-05
	5.000000000000000e+00
	3.500940103484462e+00
	0.000000000000000e+00
	0.000000000000000e+00
	9.730317530019738e-01
	3.265967048911506e+00
	3.251175914087885e+00
	3.007318437189510e-06
	3.001122851954861e+00
	9.757527244296718e-01
	4.758475567083088e-01
	2.990240236576595e+00
	6.776297145359417e-01
	2.637609936999936e-06
	4.751295712190720e-01
	6.772956638560624e-01
	3.888955887890029e-07
	1.142324067240098e-07
	-4.812365341921865e-05
	-8.051222921268586e-03
14		9.216957655438741e-05
	5.000000000000000e+00
	4.608478827719370e+00
	0.000000000000000e+00
	0.000000000000000e+00
	9.731984036776996e-01
	4.378190098331376e+00
	4.361768147711443e+00
	4.571123313964973e-05
	4.109067904831732e+00
	9.756223327826046e-01
	4.757707410476760e-01
	4.099660681624171e+00
	6.776268928495887e-01
	5.071812668011350e-05
	4.750571892344818e-01
	6.772962595402962e-01
	-1.206721327037139e-07
	1.064712710438259e-07
	-4.740826501981044e-05
	-8.051181126706108e-03
15		1.000000000000000e-04
	5.000000000000000e+00
	5.000000000000000e+00
	0.000000000000000e+00
	0.000000000000000e+00
	9.730255606737606e-01
	4.770595526485711e+00
	4.754107183379836e+00
	3.263325693447250e-06
	4.500188394292917e+00
	9.757546142312714e-01
	4.759048882288347e-01
	4.489326987710402e+00
	6.776296353017935e-01
	2.850800249897586e-06
	4.751860356498074e-01
	6.772950809177323e-01
	3.757727102057947e-07
	1.055723011256539e-07
	-4.808148993229455e-05
	-8.051227347979806e-03
16		1.009573815764552e-04
	5.000000000000000e+00
	5.000000000000000e+00
	0.000000000000000e+00
	0.000000000000000e+00
	9.731070322999126e-01
	4.783875230936317e+00
	4.764211469253941e+00
	2.394345212200587e-05
	4.500479419787869e+00
	9.756754101376721e-01
	4.758330791325101e-01
	4.490488991607514e+00
	6.776272492590306e-01
	2.631349773220227e-05
	4.751175711770103e-01
	6.772946295301109e-01
	7.607371337483910e-09
	2.406423652308200e-08
	-4.733812054646958e-05
	-8.051222027983584e-03
17		1.028721447293657e-04
	5.000000000000000e+00
	5.000000000000000e+00
	0.000000000000000e+00
	0.000000000000000e+00
	9.731002457028509e-01
	4.805943379497489e+00
	4.781552038352817e+00
	2.458623332414135e-05
	4.500483597419388e+00
	9.756839821313870e-01
	4.758402437671560e-01
	4.490517538004456e+00
	6.776272304802211e-01
	2.681960855649250e-05
	4.751235833307875e-01
	6.772944356535382e-01
	1.728916214009171e-09
	1.769487021603499e-08
	-4.731452579764817e-05
	-8.051220610395315e-03
18		1.067016710351867e-04
	5.000000000000000e+00
	5.000000000000000e+00
	0.000000000000000e+00
	0.000000000000000e+00
	9.731081041593791e-01
	4.833651962746141e+00
	4.804961087760462e+00
	2.433806004452056e-05
	4.500479698360985e+00
	9.756729238788395e-01
	4.758308353479085e-01
	4.490489780761839e+00
	6.776269845835345e-01
	2.674377545780113e-05
	4.751154188543801e-01
	6.772946808625570e-01
	7.498845767084742e-09
	1.197313616685259e-08
	-4.730380062334394e-05
	-8.051223418434894e-03
19		1.128430848713624e-04
	5.000000000000000e+00
	5.000000000000000e+00
	0.000000000000000e+00
	0.000000000000000e+00
	9.730999832030397e-01
	4.859793841347109e+00
	4.828564885573734e+00
	2.439077545149947e-05
	4.500483654755089e+00
	9.756829906980933e-01
	4.758393086208543e-01
	4.490517412761396e+00
	6.776270628698760e-01
	2.660523715347152e-05
	4.751226140005071e-01
	6.772944553519853e-01
	1.786456645455959e-09
	8.386144916179449e-09
	-4.729006666381874e-05
	-8.051221878683901e-03
20		1.199330301770466e-04
	5.000000000000000e+00
	5.000000000000000e+00
	0.000000000000000e+00
	0.000000000000000e+00
	9.731085547861056e-01
	4.878518699336913e+00
	4.846382882175818e+00
	2.447080441880508e-05
	4.500479798902833e+00
	9.756719359876005e-01
	4.758299456607870e-01
	4.490490079114949e+00
	6.776268844646081e-01
	2.688980432818662e-05
	4.751145683960973e-01
	6.772947012919557e-01
	7.457924346533827e-09
	6.522402044483430e-09
	-4.728998970982001e-05
	-8.051223944897767e-03
21		1.316536717349094e-04
	5.000000000000000e+00
	5.000000000000000e+00
	0.000000000000000e+00
	0.000000000000000e+00
	9.730997883280432e-01
	4.898581321624594e+00
	4.866394336271410e+00
	2.429437530636453e-05
	4.500483650216662e+00
	9.756827700930888e-01
	4.758390942729738e-01
	4.490517286307555e+00
	6.776270125498912e-01
	2.649893964497117e-05
	4.751223781235554e-01
	6.772944595645359e-01
	1.816710198159083e-09
	5.087227196333344e-09
	-4.728208380289090e-05
	-8.051222302501770e-03
22		1.479019324091412e-04
	5.000000000000000e+00
	5.000000000000000e+00
	0.000000000000000e+00
	0.000000000000000e+00
	9.731087717138786e-01
	4.915724037103256e+00
	4.884470713771250e+00
	2.453200110459337e-05
	4.500479848614276e+00
	9.756715063641979e-01
	4.758295584440201e-01
	4.490490216393115e+00
	6.776268433415612e-01
	2.695739062033017e-05
	4.751142004535991e-01
	6.772947102126102e-01
	7.438393975120144e-09
	4.090047998776296e-09
	-4.728416216726039e-05
	-8.051224152046066e-03
23		1.730869320343428e-04
	5.000000000000000e+00
	5.000000000000000e+00
	0.000000000000000e+00
	0.000000000000000e+00
	9.730996993310338e-01
	4.931465619430683e+00
	4.902209175755221e+00
	2.425272992048514e-05
	4.500483652357813e+00
	9.756826684088331e-01
	4.758389947110001e-01
	4.490517231241384e+00
	6.776269893240860e-01
	2.645288410457308e-05
	4.751222687361394e-01
	6.772944615119314e-01
	1.830124563721790e-09
	3.419549793125036e-09
	-4.727827623407510e-05
	-8.051222497074351e-03
24		2.053667494532462e-04
	5.000000000000000e+00
	5.000000000000000e+00
	0.000000000000000e+00
	0.000000000000000e+00
	9.731088750275757e-01
	4.942698789162033e+00
	4.915963373429769e+00
	2.456086277639136e-05
	4.500479868721889e+00
	9.756713155614554e-01
	4.758293883264930e-01
	4.490490286878567e+00
	6.776268258493722e-01
	2.698932632412237e-05
	4.751140396152101e-01
	6.772947141727047e-01
	7.429051447825885e-09
	2.954929609771948e-09
	-4.728160078559807e-05
	-8.051224236788501e-03
25		2.522247311980434e-04
	5.000000000000000e+00
	5.000000000000000e+00
	0.000000000000000e+00
	0.000000000000000e+00
	9.730996485404918e-01
	4.951314945603847e+00
	4.927531423198079e+00
	2.423153810323237e-05
	4.500483649163366e+00
	9.756826431111216e-01
	4.758389674658221e-01
	4.490517206291780e+00
	6.776269807514926e-01
	2.642941523743743e-05
	4.751222361154692e-01
	6.772944619686583e-01
	1.837027013660594e-09
	2.688852269058425e-09
	-4.727671734450212e-05
	-8.051222575213179e-03
26		3.129778349828201e-04
	5.000000000000000e+00
	5.000000000000000e+00
	0.000000000000000e+00
	0.000000000000000e+00
	9.731089272556498e-01
	4.956509017719269e+00
	4.935393943428182e+00
	2.457614836962201e-05
	4.500479886109363e+00
	9.756712356028343e-01
	4.758293169330248e-01
	4.490490322811468e+00
	6.776268194020239e-01
	2.700625631061702e-05
	4.751139730298049e-01
	6.772947158471074e-01
	7.424070085295943e-09
	2.476679214402677e-09
	-4.728060462921846e-05
	-8.051224263028622e-03
27		4.012399874214407e-04
	5.000000000000000e+00
	5.000000000000000e+00
	0.000000000000000e+00
	0.000000000000000e+00
	9.730996188362163e-01
	4.959430983418823e+00
	4.940672039295844e+00
	2.422036576167461e-05
	4.500483641089027e+00
	9.756826456722436e-01
	4.758389685657441e-01
	4.490517176424321e+00
	6.776269782337725e-01
	2.641703355530900e-05
	4.751222341860507e-01
	6.772944618792650e-01
	1.840684704236059e-09
	2.405419394783785e-09
	-4.727618517219589e-05
	-8.051222603456809e-03
28		5.012399874214407e-04
	5.000000000000000e+00
	5.000000000000000e+00
	0.000000000000000e+00
	0.000000000000000e+00
	9.731089547419354e-01
	4.960458330226668e+00
	4.942856576401320e+00
	2.458472411914543e-05
	4.500479889427830e+00
	9.756712050905625e-01
	4.758292907444646e-01
	4.490490311797113e+00
	6.776268176644313e-01
	2.701576018271007e-05
	4.751139494507191e-01
	6.772947165221676e-01
	7.421263976983077e-09
	2.322355667629910e-09
	-4.728032168421770e-05
	-8.051224265207324e-03
29		6.012399874214408e-04
	5.000000000000000e+00
	5.000000000000000e+00
	0.000000000000000e+00
	0.000000000000000e+00
	9.730995953570880e-01
	4.960787441792912e+00
	4.943572740672242e+00
	2.421235241083828e-05
	4.500483638853026e+00
	9.756826614795555e-01
	4.758389827711861e-01
	4.490517138117076e+00
	6.776269782099523e-01
	2.640814982086580e-05
	4.751222460908605e-01
	6.772944615547525e-01
	1.843314560492479e-09
	2.345630433725611e-09
	-4.727609503440977e-05
	-8.051222611924480e-03
30		7.012399874214408e-04
	5.000000000000000e+00
	5.000000000000000e+00
	0.000000000000000e+00
	0.000000000000000e+00
	9.731089790410088e-01
	4.960862972049862e+00
	4.943887867786728e+00
	2.459272850515759e-05
	4.500479897543528e+00
	9.756711849282542e-01
	4.758292737673546e-01
	4.490490336631900e+00
	6.776268171333351e-01
	2.702463499107947e-05
	4.751139348253980e-01
	6.772947169511490e-01
	7.418637212934243e-09
	2.306105083686913e-09
	-4.728028560918585e-05
	-8.051224260271939e-03
31		8.012399874214409e-04
	5.000000000000000e+00
	5.000000000000000e+00
	0.000000000000000e+00
	0.000000000000000e+00
	9.730995711723628e-01
	4.960866644076406e+00
	4.944048742074629e+00
	2.420436397669956e-05
	4.500483628492918e+00
	9.756826802267584e-01
	4.758389993215896e-01
	4.490517114277717e+00
	6.776269785532973e-01
	2.639929088329389e-05
	4.751222602871079e-01
	6.772944611448192e-01
	1.845938942193437e-09
	2.339284228700381e-09
	-4.727609799926036e-05
	-8.051222618163267e-03
32		9.012399874214409e-04
	5.000000000000000e+00
	5.000000000000000e+00
	0.000000000000000e+00
	0.000000000000000e+00
	9.731090032602276e-01
	4.960934758519532e+00
	4.944096090573955e+00
	2.460070378892354e-05
	4.500479902835345e+00
	9.756711661031430e-01
	4.758292574196125e-01
	4.490490353979846e+00
	6.776268167851580e-01
	2.703348085900227e-05
	4.751139208338309e-01
	6.772947173611404e-01
	7.416014847033084e-09
	2.301561292401040e-09
	-4.728026630473892e-05
	-8.051224254074452e-03
33		1.001239987421441e-03
	5.000000000000000e+00
	5.000000000000000e+00
	0.000000000000000e+00
	0.000000000000000e+00
	9.730995469527498e-01
	4.960963908493749e+00
	4.944052935989922e+00
	2.419640287817336e-05
	4.500483635247039e+00
	9.756826992056622e-01
	4.758390147861832e-01
	4.490517112918298e+00
	6.776269789161982e-01
	2.639045911394755e-05
	4.751222734012461e-01
	6.772944607392506e-01
	1.848560391134767e-09
	2.335528993112901e-09
	-4.727609350230200e-05
	-8.051222624208876e-03
34		1.101239987421441e-03
	5.000000000000000e+00
	5.000000000000000e+00
	0.000000000000000e+00
	0.000000000000000e+00
	9.731090275987129e-01
	4.960963106334593e+00
	4.944079549261904e+00
	2.460865110979116e-05
	4.500479907122873e+00
	9.756711467635304e-01
	4.758292411614921e-01
	4.490490369952734e+00
	6.776268163811121e-01
	2.704229894828693e-05
	4.751139069379861e-01
	6.772947177777328e-01
	7.413394247831068e-09
	2.304474691354119e-09
	-4.728025354261423e-05
	-8.051224248269317e-03
35		1.201239987421441e-03
	5.000000000000000e+00
	5.000000000000000e+00
	0.000000000000000e+00
	0.000000000000000e+00
	9.730995225486883e-01
	4.960975609440624e+00
	4.944136676321340e+00
	2.418846926081671e-05
	4.500483622643359e+00
	9.756827185208650e-01
	4.758390316846572e-01
	4.490517086100540e+00
	6.776269793117597e-01
	2.638165461624837e-05
	4.751222879274840e-01
	6.772944603187259e-01
	1.851178896107058e-09
	2.336692498012681e-09
	-4.727610047083886e-05
	-8.051222630107047e-03
36		1.301239987421441e-03
	5.000000000000000e+00
	5.000000000000000e+00
	0.000000000000000e+00
	0.000000000000000e+00
	9.731090520662860e-01
	4.960953876047141e+00
	4.944111134198388e+00
	2.461657136897672e-05
	4.500479911095532e+00
	9.756711273062253e-01
	4.758292240871363e-01
	4.490490385537590e+00
	6.776268159726021e-01
	2.705109021108374e-05
	4.751138922418676e-01
	6.772947182018952e-01
	7.410777818063351e-09
	2.301191682938273e-09
	-4.728025731093322e-05
	-8.051224242447530e-03
37		1.401239987421441e-03
	5.000000000000000e+00
	5.000000000000000e+00
	0.000000000000000e+00
	0.000000000000000e+00
	9.730994980925874e-01
	4.960919112968760e+00
	4.944085088252662e+00
	2.418056237471603e-05
	4.500483626816913e+00
	9.756827378095005e-01
	4.758390482766642e-01
	4.490517081371674e+00
	6.776269796932256e-01
	2.637287659649636e-05
	4.751223021425400e-01
	6.772944599006312e-01
	1.853794330393007e-09
	2.336591482170072e-09
	-4.727610602694998e-05
	-8.051222636087596e-03
38		1.501239987421441e-03
	5.000000000000000e+00
	5.000000000000000e+00
	0.000000000000000e+00
	0.000000000000000e+00
	9.731090765318970e-01
	4.960939174660684e+00
	4.944083141346613e+00
	2.462446483505560e-05
	4.500479910085015e+00
	9.756711081602072e-01
	4.758292077276736e-01
	4.490490394517570e+00
	6.776268156147895e-01
	2.705985494480216e-05
	4.751138782610378e-01
	6.772947186168143e-01
	7.408163056376267e-09
	2.302253663510085e-09
	-4.728025345024367e-05
	-8.051224236312660e-03
39		1.601239987421441e-03
	5.000000000000000e+00
	5.000000000000000e+00
	0.000000000000000e+00
	0.000000000000000e+00
	9.730994736130339e-01
	4.960937397106987e+00
	4.944059740652224e+00
	2.417268208130122e-05
	4.500483626934937e+00
	9.756827571450115e-01
	4.758390639203849e-01
	4.490517071287971e+00
	6.776269800702626e-01
	2.636412489632529e-05
	4.751223154116160e-01
	6.772944594884712e-01
	1.856408157704560e-09
	2.335635558811387e-09
	-4.727611056598580e-05
	-8.051222642049050e-03
40		1.701239987421441e-03
	5.000000000000000e+00
	5.000000000000000e+00
	0.000000000000000e+00
	0.000000000000000e+00
	9.731091010896223e-01
	4.960937594994038e+00
	4.944088567903516e+00
	2.463233198524724e-05
	4.500479906328190e+00
	9.756710886860391e-01
	4.758291916298536e-01
	4.490490399879615e+00
	6.776268152252142e-01
	2.706859365003074e-05
	4.751138645461785e-01
	6.772947190345175e-01
	7.405549986561151e-09
	2.304462573299765e-09
	-4.728025124367541e-05
	-8.051224230409160e-03
41		1.801239987421441e-03
	5.000000000000000e+00
	5.000000000000000e+00
	0.000000000000000e+00
	0.000000000000000e+00
	9.730994489676300e-01
	4.960937184667477e+00
	4.944122630897769e+00
	2.416482798996323e-05
	4.500483619105516e+00
	9.756827766774041e-01
	4.758390809069247e-01
	4.490517050762220e+00
	6.776269804619426e-01
	2.635539908859950e-05
	4.751223300027896e-01
	6.772944590639356e-01
	1.859019959550256e-09
	2.335762232848569e-09
	-4.727611757016081e-05
	-8.051222647982970e-03
42		1.901239987421441e-03
	5.000000000000000e+00
	5.000000000000000e+00
	0.000000000000000e+00
	0.000000000000000e+00
	9.731091257725326e-01
	4.960935401451411e+00
	4.944132765648156e+00
	2.464017336171836e-05
	4.500479912495224e+00
	9.756710690980492e-01
	4.758291747710976e-01
	4.490490418307105e+00
	6.776268148317760e-01
	2.707730691516496e-05
	4.751138500856736e-01
	6.772947194593484e-01
	7.402940091313999e-09
	2.303577261571020e-09
	-4.728024286226873e-05
	-8.051224224491227e-03
43		2.001239987421441e-03
	5.000000000000000e+00
	5.000000000000000e+00
	0.000000000000000e+00
	0.000000000000000e+00
	9.730994242357006e-01
	4.960950238625774e+00
	4.944118282723252e+00
	2.415699939657231e-05
	4.500483618735490e+00
	9.756827963808750e-01
	4.758390978251938e-01
	4.490517040087069e+00
	6.776269808649319e-01
	2.634669842576569e-05
	4.751223445186419e-01
	6.772944586373886e-01
	1.861628429696108e-09
	2.334671832682844e-09
	-4.727611944299603e-05
	-8.051222653838508e-03
44		2.101239987421441e-03
	5.000000000000000e+00
	5.000000000000000e+00
	0.000000000000000e+00
	0.000000000000000e+00
	9.731091505922215e-01
	4.960935588795882e+00
	4.944063612545480e+00
	2.464798925859125e-05
	4.500479923205054e+00
	9.756710492854053e-01
	4.758291571695500e-01
	4.490490442695956e+00
	6.776268144201130e-01
	2.708599507379897e-05
	4.751138348977645e-01
	6.772947198926963e-01
	7.400333337660712e-09
	2.302033512589291e-09
	-4.728023845046447e-05
	-8.051224218656117e-03
45		2.201239987421441e-03
	5.000000000000000e+00
	5.000000000000000e+00
	0.000000000000000e+00
	0.000000000000000e+00
	9.730993994171235e-01
	4.960907330593894e+00
	4.944033053656692e+00
	2.414919580323888e-05
	4.500483606463412e+00
	9.756828160454134e-01
	4.758391150652192e-01
	4.490517013781938e+00
	6.776269812520763e-01
	2.633802236993713e-05
	4.751223593449264e-01
	6.772944582089684e-01
	1.864232702798962e-09
	2.335560185572326e-09
	-4.727614272159730e-05
	-8.051222659822166e-03
46		2.301239987421441e-03
	5.000000000000000e+00
	5.000000000000000e+00
	0.000000000000000e+00
	0.000000000000000e+00
	9.731091753793675e-01
	4.960927559035953e+00
	4.944080980665757e+00
	2.465578033399677e-05
	4.500479927107336e+00
	9.756710297363016e-01
	4.758291409914733e-01
	4.490490458138049e+00
	6.776268140532241e-01
	2.709465881435887e-05
	4.751138211267677e-01
	6.772947203124521e-01
	7.397731107707330e-09
	2.305319034735583e-09
	-4.728022098543505e-05
	-8.051224212585639e-03
47		2.401239987421441e-03
	5.000000000000000e+00
	5.000000000000000e+00
	0.000000000000000e+00
	0.000000000000000e+00
	9.730993745579885e-01
	4.960941099001051e+00
	4.944104742559746e+00
	2.414141719098894e-05
	4.500483601630415e+00
	9.756828358301650e-01
	4.758391315010716e-01
	4.490516997269298e+00
	6.776269816440164e-01
	2.632937088404308e-05
	4.751223733677871e-01
	6.772944577844224e-01
	1.866833368227580e-09
	2.334482469835419e-09
	-4.727614574273620e-05
	-8.051222665730329e-03
48		2.501239987421440e-03
	5.000000000000000e+00
	5.000000000000000e+00
	0.000000000000000e+00
	0.000000000000000e+00
	9.731092003212775e-01
	4.960936832684117e+00
	4.944056167092755e+00
	2.466354677306602e-05
	4.500479929711190e+00
	9.756710097909140e-01
	4.758291240639480e-01
	4.490490471834803e+00
	6.776268136460417e-01
	2.710329834797165e-05
	4.751138066212093e-01
	6.772947207431320e-01
	7.395131921440057e-09
	2.302473609792252e-09
	-4.728022527034081e-05
	-8.051224206752972e-03
49		2.601239987421440e-03
	5.000000000000000e+00
	5.000000000000000e+00
	0.000000000000000e+00
	0.000000000000000e+00
	9.730993495585729e-01
	4.960939486863511e+00
	4.944066454205148e+00
	2.413366277701858e-05
	4.500483599800105e+00
	9.756828557768662e-01
	4.758391488537981e-01
	4.490516984704255e+00
	6.776269820459004e-01
	2.632074314332347e-05
	4.751223882906394e-01
	6.772944573510212e-01
	1.869431268266702e-09
	2.336778387907955e-09
	-4.727614521893297e-05
	-8.051222671621616e-03
50		2.701239987421440e-03
	5.000000000000000e+00
	5.000000000000000e+00
	0.000000000000000e+00
	0.000000000000000e+00
	9.731092251741118e-01
	4.960963785832217e+00
	4.944173246930641e+00
	2.467128919748674e-05
	4.500479942404207e+00
	9.756709899443026e-01
	4.758291060460932e-01
	4.490490525743884e+00
	6.776268132613051e-01
	2.711191432813338e-05
	4.751137910202623e-01
	6.772947211500738e-01
	7.392537269715630e-09
	2.306497827725517e-09
	-4.728018932997902e-05
	-8.051224200906315e-03
51		2.801239987421440e-03
	5.000000000000000e+00
	5.000000000000000e+00
	0.000000000000000e+00
	0.000000000000000e+00
	9.730993245228360e-01
	4.960947181072275e+00
	4.944214581915369e+00
	2.412593262911508e-05
	4.500483609324366e+00
	9.756828755998983e-01
	4.758391657784010e-01
	4.490516987162904e+00
	6.776269824211977e-01
	2.631213920154577e-05
	4.751224027814641e-01
	6.772944569222353e-01
	1.872023398922010e-09
	2.334015677540835e-09
	-4.727613628963123e-05
	-8.051222677677217e-03
52		2.901239987421440e-03
	5.000000000000000e+00
	5.000000000000000e+00
	0.000000000000000e+00
	0.000000000000000e+00
	9.731092504194384e-01
	4.960965554974919e+00
	4.944129985285660e+00
	2.467900821564622e-05
	4.500479926213386e+00
	9.756709700288342e-01
	4.758290900532312e-01
	4.490490487727525e+00
	6.776268128807028e-01
	2.712050740385945e-05
	4.751137774798728e-01
	6.772947216042364e-01
	7.389943166547108e-09
	2.301478551110402e-09
	-4.728021858613207e-05
	-8.051224194731921e-03
53		3.001239987421439e-03
	5.000000000000000e+00
	5.000000000000000e+00
	0.000000000000000e+00
	0.000000000000000e+00
	9.730992994037972e-01
	4.960974119077616e+00
	4.944123567200820e+00
	2.411822557149435e-05
	4.500483593572613e+00
	9.756828956572958e-01
	4.758391824256471e-01
	4.490516956197295e+00
	6.776269828156957e-01
	2.630355781837675e-05
	4.751224169905527e-01
	6.772944564920401e-01
	1.874617847824482e-09
	2.337091341152203e-09
	-4.727615177002598e-05
	-8.051222683585157e-03
54		3.101239987421439e-03
	5.000000000000000e+00
	5.000000000000000e+00
	0.000000000000000e+00
	0.000000000000000e+00
	9.731092756517021e-01
	4.960899391986150e+00
	4.944135169359509e+00
	2.468670359004495e-05
	4.500479939904436e+00
	9.756709495024554e-01
	4.758290729810302e-01
	4.490490515961938e+00
	6.776268124313101e-01
	2.712907737643719e-05
	4.751137628541863e-01
	6.772947220443872e-01
	7.387351613954693e-09
	2.302316484559827e-09
	-4.728021168876051e-05
	-8.051224189176587e-03
55		3.201239987421439e-03
	5.000000000000000e+00
	5.000000000000000e+00
	0.000000000000000e+00
	0.000000000000000e+00
	9.730992741322846e-01
	4.960893038499563e+00
	4.944080794230582e+00
	2.411054156130843e-05
	4.500483589943970e+00
	9.756829161658116e-01
	4.758391996070517e-01
	4.490516941336819e+00
	6.776269832572642e-01
	2.629499892558784e-05
	4.751224317208221e-01
	6.772944560516638e-01
	1.877207291358620e-09
	2.334301583908071e-09
	-4.727616856314842e-05
	-8.051222689199555e-03
56		3.301239987421439e-03
	5.000000000000000e+00
	5.000000000000000e+00
	0.000000000000000e+00
	0.000000000000000e+00
	9.731093009335593e-01
	4.960947861163581e+00
	4.944076881719377e+00
	2.469437614544937e-05
	4.500479938613821e+00
	9.756709295242105e-01
	4.758290553081157e-01
	4.490490524497208e+00
	6.776268120635822e-01
	2.713762510509445e-05
	4.751137476416635e-01
	6.772947224813765e-01
	7.384763316494752e-09
	2.304476603126553e-09
	-4.728020063649030e-05
	-8.051224183019290e-03
57		3.401239987421439e-03
	5.000000000000000e+00
	5.000000000000000e+00
	0.000000000000000e+00
	0.000000000000000e+00
	9.730992488008562e-01
	4.960945105065039e+00
	4.944151095256113e+00
	2.410288029272957e-05
	4.500483589546738e+00
	9.756829362081065e-01
	4.758392174499937e-01
	4.490516930686966e+00
	6.776269836278817e-01
	2.628646218656525e-05
	4.751224470978122e-01
	6.772944556129189e-01
	1.879794648525170e-09
	2.337369581818042e-09
	-4.727615866073620e-05
	-8.051222695344640e-03
58		3.501239987421439e-03
	5.000000000000000e+00
	5.000000000000000e+00
	0.000000000000000e+00
	0.000000000000000e+00
	9.731093262751490e-01
	4.960955515653880e+00
	4.944159730494899e+00
	2.470202641161261e-05
	4.500479937378308e+00
	9.756709092398301e-01
	4.758290384828326e-01
	4.490490533073178e+00
	6.776268116673059e-01
	2.714615114559988e-05
	4.751137332763178e-01
	6.772947229167148e-01
	7.382176901580173e-09
	2.301920486230923e-09
	-4.728020103117458e-05
	-8.051224177104910e-03
59		3.601239987421438e-03
	5.000000000000000e+00
	5.000000000000000e+00
	0.000000000000000e+00
	0.000000000000000e+00
	9.730992234106165e-01
	4.960924637276270e+00
	4.944122281932533e+00
	2.409524117954504e-05
	4.500483591220640e+00
	9.756829564164722e-01
	4.758392346898620e-01
	4.490516922763514e+00
	6.776269840088840e-01
	2.627794698874485e-05
	4.751224618700682e-01
	6.772944551760245e-01
	1.882380254440020e-09
	2.335383188588194e-09
	-4.727616912403310e-05
	-8.051222701386251e-03
60		3.701239987421438e-03