Title: 
Date: Sat Jun 10 22:48:28  2017
Plotname: Transient Analysis
Flags: real
No. Variables: 8
No. Points: 1147    
Variables:
	0	time	time
	1	v(vdd)	voltage
	2	v(a)	voltage
	3	v(b)	voltage
	4	v(qc)	voltage
	5	i(vs3)	current
	6	i(vs2)	current
	7	i(vs1)	current
Values:
0		0.000000000000000e+00
	5.000000000000000e+00
	0.000000000000000e+00
	0.000000000000000e+00
	4.545450090843671e+00
	2.318383899090798e-09
	2.318383899090798e-09
	-4.545499091563286e-04
1		1.000000000000000e-06
	5.000000000000000e+00
	5.000000000000001e-02
	0.000000000000000e+00
	4.545543697739747e+00
	2.512266360694794e-09
	-3.390311720845778e-07
	-4.544563022602531e-04
2		2.000000000000000e-06
	5.000000000000000e+00
	1.000000000000000e-01
	0.000000000000000e+00
	4.545543174081065e+00
	2.317306495739431e-09
	-3.515876801158349e-07
	-4.544568259189355e-04
3		4.000000000000001e-06
	5.000000000000000e+00
	2.000000000000000e-01
	0.000000000000000e+00
	4.545525772516435e+00
	2.283419008326604e-09
	-4.038830528509479e-07
	-4.544742274835648e-04
4		8.000000000000001e-06
	5.000000000000000e+00
	4.000000000000001e-01
	0.000000000000000e+00
	4.542230311129366e+00
	-1.059561044597482e-09
	-7.176606620510209e-07
	-4.577696888706344e-04
5		1.221605129194126e-05
	5.000000000000000e+00
	6.108025645970628e-01
	0.000000000000000e+00
	3.827769835543186e+00
	-7.092897499405583e-07
	-8.531603872843942e-06
	-1.172230164456814e-03
6		1.787297725713435e-05
	5.000000000000000e+00
	8.936488628567173e-01
	0.000000000000000e+00
	-3.646915253262269e-02
	-2.857694098434854e-06
	-2.076381393497257e-02
	-5.036469152532623e-03
7		2.092915811620411e-05
	5.000000000000000e+00
	1.046457905810205e+00
	0.000000000000000e+00
	-3.593731233962108e-02
	2.854855794268330e-06
	-4.094246967400973e-02
	-5.035937312339621e-03
8		2.391053053882265e-05
	5.000000000000000e+00
	1.195526526941132e+00
	0.000000000000000e+00
	-3.240371099955423e-02
	-2.849913949227293e-06
	-6.231071283140652e-02
	-5.032403710999555e-03
9		2.761938301846775e-05
	5.000000000000000e+00
	1.380969150923387e+00
	0.000000000000000e+00
	-2.770647131877491e-02
	2.855820133244907e-06
	-9.023375653226745e-02
	-5.027706471318775e-03
10		3.503708797775796e-05
	5.000000000000000e+00
	1.751854398887898e+00
	0.000000000000000e+00
	-1.946952179492142e-02
	-2.849970314657416e-06
	-1.486620861508468e-01
	-5.019469521794922e-03
11		4.513065364639463e-05
	5.000000000000000e+00
	2.256532682319731e+00
	0.000000000000000e+00
	-1.093119755629486e-02
	2.854743387046474e-06
	-2.312211656768413e-01
	-5.010931197556295e-03
12		6.452830378106472e-05
	5.000000000000000e+00
	3.226415189053236e+00
	0.000000000000000e+00
	4.238706124009801e-04
	-2.850817970001223e-06
	-3.950434610520667e-01
	-4.999576129387599e-03
13		1.000000000000000e-04
	5.000000000000000e+00
	5.000000000000000e+00
	0.000000000000000e+00
	1.316620260669125e-02
	2.854042429023813e-06
	-7.051995952034588e-01
	-4.986833797393309e-03
14		1.038795300269340e-04
	5.000000000000000e+00
	5.000000000000000e+00
	0.000000000000000e+00
	1.317453678583792e-02
	5.642810986606027e-10
	-7.051997705058559e-01
	-4.986825463214162e-03
15		1.116385900808021e-04
	5.000000000000000e+00
	5.000000000000000e+00
	0.000000000000000e+00
	1.317448032114037e-02
	4.810849653668788e-10
	-7.051979650473394e-01
	-4.986825519678860e-03
16		1.271567101885381e-04
	5.000000000000000e+00
	5.000000000000000e+00
	0.000000000000000e+00
	1.317447298302365e-02
	5.643282560534727e-10
	-7.051977393532888e-01
	-4.986825527016976e-03
17		1.581929504040102e-04
	5.000000000000000e+00
	5.000000000000000e+00
	0.000000000000000e+00
	1.317447560301931e-02
	4.810874283499164e-10
	-7.051978152031196e-01
	-4.986825524396981e-03
18		2.202654308349545e-04
	5.000000000000000e+00
	5.000000000000000e+00
	0.000000000000000e+00
	1.317447592779534e-02
	5.643273847299596e-10
	-7.051978332893276e-01
	-4.986825524072205e-03
19		3.202654308349545e-04
	5.000000000000000e+00
	5.000000000000000e+00
	0.000000000000000e+00
	1.317447607139251e-02
	4.810876223055749e-10
	-7.051978301429698e-01
	-4.986825523928607e-03
20		4.202654308349545e-04
	5.000000000000000e+00
	5.000000000000000e+00
	0.000000000000000e+00
	1.317447581141101e-02
	5.643271926524325e-10
	-7.051978295769119e-01
	-4.986825524188590e-03
21		5.202654308349545e-04
	5.000000000000000e+00
	5.000000000000000e+00
	0.000000000000000e+00
	1.317447604581110e-02
	4.810878162340620e-10
	-7.051978293270857e-01
	-4.986825523954189e-03
22		6.202654308349546e-04
	5.000000000000000e+00
	5.000000000000000e+00
	0.000000000000000e+00
	1.317447581310560e-02
	5.643269999334121e-10
	-7.051978296308807e-01
	-4.986825524186895e-03
23		7.202654308349546e-04
	5.000000000000000e+00
	5.000000000000000e+00
	0.000000000000000e+00
	1.317447604656009e-02
	4.810880089670210e-10
	-7.051978293510583e-01
	-4.986825523953440e-03
24		8.202654308349547e-04
	5.000000000000000e+00
	5.000000000000000e+00
	0.000000000000000e+00
	1.317447581310300e-02
	5.643268071705841e-10
	-7.051978296307170e-01
	-4.986825524186897e-03
25		9.202654308349547e-04
	5.000000000000000e+00
	5.000000000000000e+00
	0.000000000000000e+00
	1.317447604653807e-02
	4.810882017271778e-10
	-7.051978293504345e-01
	-4.986825523953462e-03
26		1.020265430834955e-03
	5.000000000000000e+00
	5.000000000000000e+00
	0.000000000000000e+00
	1.317447581310462e-02
	5.643266144118549e-10
	-7.051978296306821e-01
	-4.986825524186896e-03
27		1.120265430834955e-03
	5.000000000000000e+00
	5.000000000000000e+00
	0.000000000000000e+00
	1.317447604653589e-02
	4.810883944852650e-10
	-7.051978293504571e-01
	-4.986825523953464e-03
28		1.220265430834955e-03
	5.000000000000000e+00
	5.000000000000000e+00
	0.000000000000000e+00
	1.317447581310722e-02
	5.643264216545333e-10
	-7.051978296306770e-01
	-4.986825524186893e-03
29		1.320265430834955e-03
	5.000000000000000e+00
	5.000000000000000e+00
	0.000000000000000e+00
	1.317447604653335e-02
	4.810885872418344e-10
	-7.051978293504618e-01
	-4.986825523953467e-03
30		1.420265430834955e-03
	5.000000000000000e+00
	5.000000000000000e+00
	0.000000000000000e+00
	1.317447581310950e-02
	5.643262288986698e-10
	-7.051978296306696e-01
	-4.986825524186890e-03
31		1.520265430834955e-03
	5.000000000000000e+00
	5.000000000000000e+00
	0.000000000000000e+00
	1.317447604653111e-02
	4.810887799969820e-10
	-7.051978293504689e-01
	-4.986825523953469e-03
32		1.620265430834955e-03
	5.000000000000000e+00
	5.000000000000000e+00
	0.000000000000000e+00
	1.317447581311225e-02
	5.643260361442822e-10
	-7.051978296306630e-01
	-4.986825524186888e-03
33		1.720265430834955e-03
	5.000000000000000e+00
	5.000000000000000e+00
	0.000000000000000e+00
	1.317447604652837e-02
	4.810889727506107e-10
	-7.051978293504773e-01
	-4.986825523953472e-03
34		1.820265430834955e-03
	5.000000000000000e+00
	5.000000000000000e+00
	0.000000000000000e+00
	1.317447581311438e-02
	5.643258433913691e-10
	-7.051978296306550e-01
	-4.986825524186886e-03
35		1.920265430834955e-03
	5.000000000000000e+00
	5.000000000000000e+00
	0.000000000000000e+00
	1.317447604652593e-02
	4.810891655027847e-10
	-7.051978293504836e-01
	-4.986825523953474e-03
36		2.020265430834955e-03
	5.000000000000000e+00
	5.000000000000000e+00
	0.000000000000000e+00
	1.317447581311697e-02
	5.643256506399454e-10
	-7.051978296306499e-01
	-4.986825524186883e-03
37		2.120265430834955e-03
	5.000000000000000e+00
	5.000000000000000e+00
	0.000000000000000e+00
	1.317447604652365e-02
	4.810893582534864e-10
	-7.051978293504890e-01
	-4.986825523953476e-03
38		2.220265430834955e-03
	5.000000000000000e+00
	5.000000000000000e+00
	0.000000000000000e+00
	1.317447581311941e-02
	5.643254578899540e-10
	-7.051978296306426e-01
	-4.986825524186881e-03
39		2.320265430834955e-03
	5.000000000000000e+00
	5.000000000000000e+00
	0.000000000000000e+00
	1.317447604652106e-02
	4.810895510027486e-10
	-7.051978293504975e-01
	-4.986825523953479e-03
40		2.420265430834955e-03
	5.000000000000000e+00
	5.000000000000000e+00
	0.000000000000000e+00
	1.317447581312185e-02
	5.643252651414516e-10
	-7.051978296306360e-01
	-4.986825524186878e-03
41		2.520265430834954e-03
	5.000000000000000e+00
	5.000000000000000e+00
	0.000000000000000e+00
	1.317447604651867e-02
	4.810897437505233e-10
	-7.051978293505033e-01
	-4.986825523953482e-03
42		2.620265430834954e-03
	5.000000000000000e+00
	5.000000000000000e+00
	0.000000000000000e+00
	1.317447581312413e-02
	5.643250723943574e-10
	-7.051978296306276e-01
	-4.986825524186876e-03
43		2.720265430834954e-03
	5.000000000000000e+00
	5.000000000000000e+00
	0.000000000000000e+00
	1.317447604651613e-02
	4.810899364968688e-10
	-7.051978293505116e-01
	-4.986825523953484e-03
44		2.820265430834954e-03
	5.000000000000000e+00
	5.000000000000000e+00
	0.000000000000000e+00
	1.317447581312692e-02
	5.643248796487836e-10
	-7.051978296306221e-01
	-4.986825524186873e-03
45		2.920265430834954e-03
	5.000000000000000e+00
	5.000000000000000e+00
	0.000000000000000e+00
	1.317447604651369e-02
	4.810901292416867e-10
	-7.051978293505170e-01
	-4.986825523953487e-03
46		3.020265430834953e-03
	5.000000000000000e+00
	5.000000000000000e+00
	0.000000000000000e+00
	1.317447581312931e-02
	5.643246869046762e-10
	-7.051978296306149e-01
	-4.986825524186870e-03
47		3.120265430834953e-03
	5.000000000000000e+00
	5.000000000000000e+00
	0.000000000000000e+00
	1.317447604651090e-02
	4.810903219850224e-10
	-7.051978293505234e-01
	-4.986825523953489e-03
48		3.220265430834953e-03
	5.000000000000000e+00
	5.000000000000000e+00
	0.000000000000000e+00
	1.317447581313160e-02
	5.643244941620974e-10
	-7.051978296306082e-01
	-4.986825524186869e-03
49		3.320265430834953e-03
	5.000000000000000e+00
	5.000000000000000e+00
	0.000000000000000e+00
	1.317447604650862e-02
	4.810905147268974e-10
	-7.051978293505301e-01
	-4.986825523953491e-03
50		3.420265430834953e-03
	5.000000000000000e+00
	5.000000000000000e+00
	0.000000000000000e+00
	1.317447581313414e-02
	5.643243014209509e-10
	-7.051978296306002e-01
	-4.986825524186866e-03
51		3.520265430834953e-03
	5.000000000000000e+00
	5.000000000000000e+00
	0.000000000000000e+00
	1.317447604650628e-02
	4.810907074673152e-10
	-7.051978293505365e-01
	-4.986825523953494e-03
52		3.620265430834952e-03
	5.000000000000000e+00
	5.000000000000000e+00
	0.000000000000000e+00
	1.317447581313663e-02
	5.643241086812861e-10
	-7.051978296305947e-01
	-4.986825524186863e-03
53		3.720265430834952e-03
	5.000000000000000e+00
	5.000000000000000e+00
	0.000000000000000e+00
	1.317447604650384e-02
	4.810909002062526e-10
	-7.051978293505453e-01
	-4.986825523953496e-03
54		3.820265430834952e-03
	5.000000000000000e+00
	5.000000000000000e+00
	0.000000000000000e+00
	1.317447581313891e-02
	5.643239159430467e-10
	-7.051978296305884e-01
	-4.986825524186861e-03
55		3.920265430834952e-03
	5.000000000000000e+00
	5.000000000000000e+00
	0.000000000000000e+00
	1.317447604650130e-02
	4.810910929437601e-10
	-7.051978293505516e-01
	-4.986825523953499e-03
56		4.020265430834952e-03
	5.000000000000000e+00
	5.000000000000000e+00
	0.000000000000000e+00
	1.317447581314145e-02
	5.643237232062945e-10
	-7.051978296305806e-01
	-4.986825524186858e-03
57		4.120265430834952e-03
	5.000000000000000e+00
	5.000000000000000e+00
	0.000000000000000e+00
	1.317447604649896e-02
	4.810912856797607e-10
	-7.051978293505574e-01
	-4.986825523953502e-03
58		4.220265430834953e-03
	5.000000000000000e+00
	5.000000000000000e+00
	0.000000000000000e+00
	1.317447581314399e-02
	5.643235304710227e-10
	-7.051978296305748e-01
	-4.986825524186857e-03
59		4.320265430834953e-03
	5.000000000000000e+00
	5.000000000000000e+00
	0.000000000000000e+00
	1.317447604649638e-02
	4.810914784142872e-10
	-7.051978293505650e-01
	-4.986825523953504e-03
60		4.420265430834953e-03
	5.000000000000000e+00
	5.000000000000000e+00
	0.000000000000000e+00
	1.317447581314653e-02
	5.643233377372558e-10
	-7.051978296305680e-01
	-4.986825524186854e-03
61		4.520265430834954e-03
	5.000000000000000e+00
	5.000000000000000e+00
	0.000000000000000e+00
	1.317447604649389e-02
	4.810916711473234e-10
	-7.051978293505715e-01
	-4.986825523953506e-03
62		4.620265430834954e-03
	5.000000000000000e+00
	5.000000000000000e+00
	0.000000000000000e+00
	1.317447581314897e-02
	5.643231450049713e-10
	-7.051978296305600e-01
	-4.986825524186851e-03
63		4.720265430834954e-03
	5.000000000000000e+00
	5.000000000000000e+00
	0.000000000000000e+00
	1.317447604649140e-02
	4.810918638788764e-10
	-7.051978293505792e-01
	-4.986825523953508e-03
64		4.820265430834954e-03
	5.000000000000000e+00
	5.000000000000000e+00
	0.000000000000000e+00
	1.317447581315141e-02
	5.643229522741444e-10
	-7.051978296305540e-01
	-4.986825524186849e-03
65		4.920265430834955e-03
	5.000000000000000e+00
	5.000000000000000e+00
	0.000000000000000e+00
	1.317447604648911e-02
	4.810920566090018e-10
	-7.051978293505858e-01
	-4.986825523953511e-03
66		5.020265430834955e-03
	5.000000000000000e+00
	5.000000000000000e+00
	0.000000000000000e+00
	1.317447581315384e-02
	5.643227595447425e-10
	-7.051978296305470e-01
	-4.986825524186846e-03
67		5.120265430834955e-03
	5.000000000000000e+00
	5.000000000000000e+00
	0.000000000000000e+00
	1.317447604648662e-02
	4.810922493376720e-10
	-7.051978293505918e-01
	-4.986825523953514e-03
68		5.220265430834955e-03
	5.000000000000000e+00
	5.000000000000000e+00
	0.000000000000000e+00
	1.317447581315628e-02
	5.643225668168039e-10
	-7.051978296305399e-01
	-4.986825524186844e-03
69		5.320265430834956e-03
	5.000000000000000e+00
	5.000000000000000e+00
	0.000000000000000e+00
	1.317447604648449e-02
	4.810924420648905e-10
	-7.051978293506000e-01
	-4.986825523953515e-03
70		5.420265430834956e-03
	5.000000000000000e+00
	5.000000000000000e+00
	0.000000000000000e+00
	1.317447581315887e-02
	5.643223740903360e-10
	-7.051978296305332e-01
	-4.986825524186841e-03
71		5.520265430834956e-03
	5.000000000000000e+00
	5.000000000000000e+00
	0.000000000000000e+00
	1.317447604648159e-02
	4.810926347905739e-10
	-7.051978293506055e-01
	-4.986825523953519e-03
72		5.620265430834956e-03
	5.000000000000000e+00
	5.000000000000000e+00
	0.000000000000000e+00
	1.317447581316126e-02
	5.643221813653789e-10
	-7.051978296305258e-01
	-4.986825524186839e-03
73		5.720265430834957e-03
	5.000000000000000e+00
	5.000000000000000e+00
	0.000000000000000e+00
	1.317447604647931e-02
	4.810928275148164e-10
	-7.051978293506136e-01
	-4.986825523953521e-03
74		5.820265430834957e-03
	5.000000000000000e+00
	5.000000000000000e+00
	0.000000000000000e+00
	1.317447581316370e-02
	5.643219886418423e-10
	-7.051978296305197e-01
	-4.986825524186837e-03
75		5.920265430834957e-03
	5.000000000000000e+00
	5.000000000000000e+00
	0.000000000000000e+00
	1.317447604647672e-02
	4.810930202376133e-10
	-7.051978293506201e-01
	-4.986825523953523e-03
76		6.020265430834957e-03
	5.000000000000000e+00
	5.000000000000000e+00
	0.000000000000000e+00
	1.317447581316598e-02
	5.643217959197742e-10
	-7.051978296305123e-01
	-4.986825524186834e-03
77		6.120265430834958e-03
	5.000000000000000e+00
	5.000000000000000e+00
	0.000000000000000e+00
	1.317447604647438e-02
	4.810932129589432e-10
	-7.051978293506272e-01
	-4.986825523953526e-03
78		6.220265430834958e-03
	5.000000000000000e+00
	5.000000000000000e+00
	0.000000000000000e+00
	1.317447581316857e-02
	5.643216031991891e-10
	-7.051978296305061e-01
	-4.986825524186831e-03
79		6.320265430834958e-03
	5.000000000000000e+00
	5.000000000000000e+00
	0.000000000000000e+00
	1.317447604647205e-02
	4.810934056788235e-10
	-7.051978293506329e-01
	-4.986825523953528e-03
80		6.420265430834959e-03
	5.000000000000000e+00
	5.000000000000000e+00
	0.000000000000000e+00
	1.317447581317116e-02
	5.643214104800581e-10
	-7.051978296304984e-01
	-4.986825524186829e-03
81		6.520265430834959e-03
	5.000000000000000e+00
	5.000000000000000e+00
	0.000000000000000e+00
	1.317447604646946e-02
	4.810935983971738e-10
	-7.051978293506391e-01
	-4.986825523953531e-03
82		6.620265430834959e-03
	5.000000000000000e+00
	5.000000000000000e+00
	0.000000000000000e+00
	1.317447581317345e-02
	5.643212177624254e-10
	-7.051978296304916e-01
	-4.986825524186827e-03
83		6.720265430834959e-03
	5.000000000000000e+00
	5.000000000000000e+00
	0.000000000000000e+00
	1.317447604646707e-02
	4.810937911140938e-10
	-7.051978293506468e-01
	-4.986825523953533e-03
84		6.820265430834960e-03
	5.000000000000000e+00
	5.000000000000000e+00
	0.000000000000000e+00
	1.317447581317594e-02
	5.643210250462602e-10
	-7.051978296304845e-01
	-4.986825524186824e-03
85		6.920265430834960e-03
	5.000000000000000e+00
	5.000000000000000e+00
	0.000000000000000e+00
	1.317447604646423e-02
	4.810939838294965e-10
	-7.051978293506530e-01
	-4.986825523953536e-03
86		7.020265430834960e-03
	5.000000000000000e+00
	5.000000000000000e+00
	0.000000000000000e+00
	1.317447581317857e-02
	5.643208323316240e-10
	-7.051978296304786e-01
	-4.986825524186822e-03
87		7.120265430834960e-03
	5.000000000000000e+00
	5.000000000000000e+00
	0.000000000000000e+00
	1.317447604646189e-02
	4.810941765433927e-10
	-7.051978293506604e-01
	-4.986825523953538e-03
88		7.220265430834961e-03
	5.000000000000000e+00
	5.000000000000000e+00
	0.000000000000000e+00
	1.317447581318076e-02
	5.643206396184168e-10
	-7.051978296304713e-01
	-4.986825524186819e-03
89		7.320265430834961e-03
	5.000000000000000e+00
	5.000000000000000e+00
	0.000000000000000e+00
	1.317447604645965e-02
	4.810943692559008e-10
	-7.051978293506674e-01
	-4.986825523953541e-03
90		7.420265430834961e-03
	5.000000000000000e+00
	5.000000000000000e+00
	0.000000000000000e+00
	1.317447581318350e-02
	5.643204469066647e-10
	-7.051978296304664e-01
	-4.986825524186817e-03
91		7.520265430834961e-03
	5.000000000000000e+00
	5.000000000000000e+00
	0.000000000000000e+00
	1.317447604645696e-02
	4.810945619668749e-10
	-7.051978293506734e-01
	-4.986825523953543e-03
92		7.620265430834962e-03
	5.000000000000000e+00
	5.000000000000000e+00
	0.000000000000000e+00
	1.317447581318589e-02
	5.643202541964290e-10
	-7.051978296304579e-01
	-4.986825524186814e-03
93		7.720265430834962e-03
	5.000000000000000e+00
	5.000000000000000e+00
	0.000000000000000e+00
	1.317447604645473e-02
	4.810947546763838e-10
	-7.051978293506815e-01
	-4.986825523953546e-03
94		7.820265430834961e-03
	5.000000000000000e+00
	5.000000000000000e+00
	0.000000000000000e+00
	1.317447581318823e-02
	5.643200614876412e-10
	-7.051978296304505e-01
	-4.986825524186812e-03
95		7.920265430834961e-03
	5.000000000000000e+00
	5.000000000000000e+00
	0.000000000000000e+00
	1.317447604645224e-02
	4.810949473844661e-10
	-7.051978293506874e-01
	-4.986825523953548e-03
96		8.020265430834960e-03
	5.000000000000000e+00
	5.000000000000000e+00
	0.000000000000000e+00
	1.317447581319081e-02
	5.643198687803122e-10
	-7.051978296304448e-01
	-4.986825524186810e-03
97		8.120265430834959e-03
	5.000000000000000e+00
	5.000000000000000e+00
	0.000000000000000e+00
	1.317447604644970e-02
	4.810951400910412e-10
	-7.051978293506942e-01
	-4.986825523953550e-03
98		8.220265430834959e-03
	5.000000000000000e+00
	5.000000000000000e+00
	0.000000000000000e+00
	1.317447581319346e-02
	5.643196760744967e-10
	-7.051978296304372e-01
	-4.986825524186806e-03
99		8.320265430834958e-03
	5.000000000000000e+00
	5.000000000000000e+00
	0.000000000000000e+00
	1.317447604644711e-02
	4.810953327961180e-10
	-7.051978293507002e-01
	-4.986825523953553e-03
100		8.420265430834958e-03
	5.000000000000000e+00
	5.000000000000000e+00
	0.000000000000000e+00
	1.317447581319579e-02
	5.643194833701424e-10
	-7.051978296304320e-01
	-4.986825524186804e-03
101		8.520265430834957e-03
	5.000000000000000e+00
	5.000000000000000e+00
	0.000000000000000e+00
	1.317447604644488e-02
	4.810955254997512e-10
	-7.051978293507090e-01
	-4.986825523953555e-03
102		8.620265430834956e-03
	5.000000000000000e+00
	5.000000000000000e+00
	0.000000000000000e+00
	1.317447581319818e-02
	5.643192906672398e-10
	-7.051978296304244e-01
	-4.986825524186802e-03
103		8.720265430834956e-03
	5.000000000000000e+00
	5.000000000000000e+00
	0.000000000000000e+00
	1.317447604644259e-02
	4.810957182019358e-10
	-7.051978293507142e-01
	-4.986825523953558e-03
104		8.820265430834955e-03
	5.000000000000000e+00
	5.000000000000000e+00
	0.000000000000000e+00
	1.317447581320041e-02
	5.643190979657394e-10
	-7.051978296304179e-01
	-4.986825524186799e-03
105		8.920265430834955e-03
	5.000000000000000e+00
	5.000000000000000e+00
	0.000000000000000e+00
	1.317447604644000e-02
	4.810959109027102e-10
	-7.051978293507219e-01
	-4.986825523953561e-03
106		9.020265430834954e-03
	5.000000000000000e+00
	5.000000000000000e+00
	0.000000000000000e+00
	1.317447581320305e-02
	5.643189052657440e-10
	-7.051978296304094e-01
	-4.986825524186797e-03
107		9.120265430834953e-03
	5.000000000000000e+00
	5.000000000000000e+00
	0.000000000000000e+00
	1.317447604643741e-02
	4.810961036019605e-10
	-7.051978293507282e-01
	-4.986825523953563e-03
108		9.220265430834953e-03
	5.000000000000000e+00
	5.000000000000000e+00
	0.000000000000000e+00
	1.317447581320539e-02
	5.643187125672123e-10
	-7.051978296304037e-01
	-4.986825524186795e-03
109		9.320265430834952e-03
	5.000000000000000e+00
	5.000000000000000e+00
	0.000000000000000e+00
	1.317447604643502e-02
	4.810962962997418e-10
	-7.051978293507343e-01
	-4.986825523953565e-03
110		9.420265430834952e-03
	5.000000000000000e+00
	5.000000000000000e+00
	0.000000000000000e+00
	1.317447581320788e-02
	5.643185198701423e-10
	-7.051978296303972e-01
	-4.986825524186792e-03
111		9.520265430834951e-03
	5.000000000000000e+00
	5.000000000000000e+00
	0.000000000000000e+00
	1.317447604643269e-02
	4.810964889961159e-10
	-7.051978293507408e-01
	-4.986825523953567e-03
112		9.620265430834950e-03
	5.000000000000000e+00
	5.000000000000000e+00
	0.000000000000000e+00
	1.317447581321057e-02
	5.643183271745413e-10
	-7.051978296303911e-01
	-4.986825524186790e-03
113		9.720265430834950e-03
	5.000000000000000e+00
	5.000000000000000e+00
	0.000000000000000e+00
	1.317447604643015e-02
	4.810966816909427e-10
	-7.051978293507486e-01
	-4.986825523953570e-03
114		9.820265430834949e-03
	5.000000000000000e+00
	5.000000000000000e+00
	0.000000000000000e+00
	1.317447581321276e-02
	5.643181344804154e-10
	-7.051978296303844e-01
	-4.986825524186787e-03
115		9.920265430834949e-03
	5.000000000000000e+00
	5.000000000000000e+00
	0.000000000000000e+00
	1.317447604642755e-02
	4.810968743843253e-10
	-7.051978293507557e-01
	-4.986825523953573e-03
116		1.002026543083495e-02
	5.000000000000000e+00
	5.000000000000000e+00
	0.000000000000000e+00
	1.317447581321515e-02
	5.643179417877588e-10
	-7.051978296303775e-01
	-4.986825524186785e-03
117		1.010000000000000e-02
	5.000000000000000e+00
	5.000000000000000e+00
	0.000000000000000e+00
	1.317447604690737e-02
	4.810970916256190e-10
	-7.051978293661532e-01
	-4.986825523953093e-03
118		1.010559550335863e-02
	5.000000000000000e+00
	4.720224832068602e+00
	0.000000000000000e+00
	1.156058372331802e-02
	-6.137857050907403e-10
	-6.555607831777971e-01
	-4.988439416276682e-03
119		1.011678651007589e-02
	5.000000000000000e+00
	4.160674496205721e+00
	0.000000000000000e+00
	7.960049310038596e-03
	-1.000721489349699e-09
	-5.570389671966433e-01
	-4.992039950689962e-03
120		1.013916852351040e-02
	5.000000000000000e+00
	3.041573824480045e+00
	0.000000000000000e+00
	-1.391999283384316e-03
	-1.875213232563533e-09
	-3.634420627771134e-01
	-5.001391999283384e-03
121		1.018393255037943e-02
	5.000000000000000e+00
	8.033724810286049e-01
	0.000000000000000e+00
	-2.964907739984195e-02
	-4.796435610069659e-09
	-1.028644545720515e-02
	-5.029649077399842e-03
122		1.020000000000000e-02
	5.000000000000000e+00
	0.000000000000000e+00
	0.000000000000000e+00
	4.542488445169164e+00
	1.445800242496454e-06
	-2.521265913139946e-06
	-4.575115548308356e-04
123		1.020064779029580e-02
	5.000000000000000e+00
	0.000000000000000e+00
	0.000000000000000e+00
	4.545432969468414e+00
	1.181151913871012e-08
	1.158686268374534e-08
	-4.545670305315863e-04
124		1.020111081380176e-02
	5.000000000000000e+00
	0.000000000000000e+00
	0.000000000000000e+00
	4.545466660892596e+00
	-6.869752974663298e-09
	-6.645181399600881e-09
	-4.545333391074036e-04
125		1.020186689762436e-02
	5.000000000000000e+00
	0.000000000000000e+00
	0.000000000000000e+00
	4.545433847482171e+00
	1.132579702575794e-08
	1.110126028396918e-08
	-4.545661525178291e-04
126		1.020337906526955e-02
	5.000000000000000e+00
	0.000000000000000e+00
	0.000000000000000e+00
	4.545466172628156e+00
	-6.599643563062764e-09
	-6.375129548843410e-09
	-4.545338273718438e-04
127		1.020640340055995e-02
	5.000000000000000e+00
	0.000000000000000e+00
	0.000000000000000e+00
	4.545434089241255e+00
	1.119205424056199e-08
	1.096755158898426e-08
	-4.545659107587459e-04
128		1.021245207114075e-02
	5.000000000000000e+00
	0.000000000000000e+00
	0.000000000000000e+00
	4.545466052504194e+00
	-6.533190148726357e-09
	-6.308693178406240e-09
	-4.545339474958058e-04
129		1.022454941230234e-02
	5.000000000000000e+00
	0.000000000000000e+00
	0.000000000000000e+00
	4.545434149116507e+00
	1.115893087534400e-08
	1.093443674552241e-08
	-4.545658508834935e-04
130		1.024874409462552e-02
	5.000000000000000e+00
	0.000000000000000e+00
	0.000000000000000e+00
	4.545466022613549e+00
	-6.516654518457611e-09
	-6.292161808911901e-09
	-4.545339773864504e-04
131		1.029713345927188e-02
	5.000000000000000e+00
	0.000000000000000e+00
	0.000000000000000e+00
	4.545434164049800e+00
	1.115066942161129e-08
	1.092617742217903e-08
	-4.545658359502002e-04
132		1.039391218856460e-02
	5.000000000000000e+00
	0.000000000000000e+00
	0.000000000000000e+00
	4.545466015149813e+00
	-6.512525451488748e-09
	-6.288033807123511e-09
	-4.545339848501867e-04
133		1.049391218856460e-02
	5.000000000000000e+00
	0.000000000000000e+00
	0.000000000000000e+00
	4.545434168944659e+00
	1.114796164669662e-08
	1.092347034595157e-08
	-4.545658310553405e-04
134		1.059391218856460e-02
	5.000000000000000e+00
	0.000000000000000e+00
	0.000000000000000e+00
	4.545466010336234e+00
	-6.509862428368019e-09
	-6.285371471247444e-09
	-4.545339896637659e-04
135		1.069391218856460e-02
	5.000000000000000e+00
	0.000000000000000e+00
	0.000000000000000e+00
	4.545434173757826e+00
	1.114529902164560e-08
	1.092080840814551e-08
	-4.545658262421742e-04
136		1.079391218856460e-02
	5.000000000000000e+00
	0.000000000000000e+00
	0.000000000000000e+00
	4.545466005523913e+00
	-6.507200205901478e-09
	-6.282709936024883e-09
	-4.545339944760866e-04
137		1.089391218856460e-02
	5.000000000000000e+00
	0.000000000000000e+00
	0.000000000000000e+00
	4.545434178569419e+00
	1.114263720157981e-08
	1.091814727532270e-08
	-4.545658214305812e-04
138		1.099391218856460e-02
	5.000000000000000e+00
	0.000000000000000e+00
	0.000000000000000e+00
	4.545466000712819e+00
	-6.504538788193118e-09
	-6.280049205558551e-09
	-4.545339992871808e-04
139		1.109391218856460e-02
	5.000000000000000e+00
	0.000000000000000e+00
	0.000000000000000e+00
	4.545434183379786e+00
	1.113997618616924e-08
	1.091548694715307e-08
	-4.545658166202138e-04
140		1.119391218856460e-02
	5.000000000000000e+00
	0.000000000000000e+00
	0.000000000000000e+00
	4.545465995903638e+00
	-6.501878175009205e-09
	-6.277389279614389e-09
	-4.545340040963625e-04
141		1.129391218856460e-02
	5.000000000000000e+00
	0.000000000000000e+00
	0.000000000000000e+00
	4.545434188188125e+00
	1.113731597511876e-08
	1.091282742334134e-08
	-4.545658118118752e-04
142		1.139391218856460e-02
	5.000000000000000e+00
	0.000000000000000e+00
	0.000000000000000e+00
	4.545465991095453e+00
	-6.499218366058650e-09
	-6.274730157901534e-09
	-4.545340089045467e-04
143		1.149391218856460e-02
	5.000000000000000e+00
	0.000000000000000e+00
	0.000000000000000e+00
	4.545434192995584e+00
	1.113465656822298e-08
	1.091016870368219e-08
	-4.545658070044161e-04
144		1.159391218856460e-02
	5.000000000000000e+00
	0.000000000000000e+00
	0.000000000000000e+00
	4.545465986289179e+00
	-6.496559361146113e-09
	-6.272071840224726e-09
	-4.545340137108210e-04
145		1.169391218856460e-02
	5.000000000000000e+00
	0.000000000000000e+00
	0.000000000000000e+00
	4.545434197801246e+00
	1.113199796521018e-08
	1.090751078790407e-08
	-4.545658021987541e-04
146		1.179391218856459e-02
	5.000000000000000e+00
	0.000000000000000e+00
	0.000000000000000e+00
	4.545465981483898e+00
	-6.493901159999901e-09
	-6.269414326312198e-09
	-4.545340185161022e-04
147		1.189391218856459e-02
	5.000000000000000e+00
	0.000000000000000e+00
	0.000000000000000e+00
	4.545434202605800e+00
	1.112934016587574e-08
	1.090485367580225e-08
	-4.545657973941998e-04
148		1.199391218856459e-02
	5.000000000000000e+00
	0.000000000000000e+00
	0.000000000000000e+00
	4.545465976680072e+00
	-6.491243762424722e-09
	-6.266757615968650e-09
	-4.545340233199279e-04
149		1.209391218856459e-02
	5.000000000000000e+00
	0.000000000000000e+00
	0.000000000000000e+00
	4.545434207408901e+00
	1.112668316999086e-08
	1.090219736714788e-08
	-4.545657925910992e-04
150		1.219391218856459e-02
	5.000000000000000e+00
	0.000000000000000e+00
	0.000000000000000e+00
	4.545465971878156e+00
	-6.488587168158629e-09
	-6.264101708931953e-09
	-4.545340281218438e-04
151		1.229391218856459e-02
	5.000000000000000e+00
	0.000000000000000e+00
	0.000000000000000e+00
	4.545434212210089e+00
	1.112402697725523e-08
	1.089954186164087e-08
	-4.545657877899111e-04
152		1.239391218856459e-02
	5.000000000000000e+00
	0.000000000000000e+00
	0.000000000000000e+00
	4.545465967077234e+00
	-6.485931376920414e-09
	-6.261446604921108e-09
	-4.545340329227656e-04
153		1.249391218856459e-02
	5.000000000000000e+00
	0.000000000000000e+00
	0.000000000000000e+00
	4.545434217010287e+00
	1.112137158746453e-08
	1.089688715907618e-08
	-4.545657829897127e-04
154		1.259391218856459e-02
	5.000000000000000e+00
	0.000000000000000e+00
	0.000000000000000e+00
	4.545465962278337e+00
	-6.483276388500841e-09
	-6.258792303726675e-09
	-4.545340377216630e-04
155		1.269391218856459e-02
	5.000000000000000e+00
	0.000000000000000e+00
	0.000000000000000e+00
	4.545434221808458e+00
	1.111871700032326e-08
	1.089423325915911e-08
	-4.545657781915421e-04
156		1.279391218856459e-02
	5.000000000000000e+00
	0.000000000000000e+00
	0.000000000000000e+00
	4.545465957480316e+00
	-6.480622202609396e-09
	-6.256138805058379e-09